TITLE = "Actuator line mesh" 
 VARIABLES = "X", "Y", "Z", "ub_x", "ub_y", "ub_z", "tmprtb", "color", "U_lagr_x", "U_lagr_y", "U_lagr_z", "F_lagr_x", "F_lagr_y", "F_lagr_z", "Tmprt_lagr", "Ftmprt_lagr"
ZONE T="P_1", DATAPACKING=BLOCK, NODES=18, ELEMENTS=15, ZONETYPE=FELINESEG, VARLOCATION=([1-7]=NODAL,[8-16]=CELLCENTERED)
STRANDID=0.1 SOLUTIONTIME=1.000000e+01 
0.000000e+00 
-9.873985e-03 
-1.974797e-02 
-2.962196e-02 
-3.949594e-02 
-4.936993e-02 
0.000000e+00 
3.566479e-03 
7.132958e-03 
1.069944e-02 
1.426592e-02 
1.783239e-02 
0.000000e+00 
6.307507e-03 
1.261501e-02 
1.892252e-02 
2.523003e-02 
3.153753e-02 
8.330000e-02 
8.488253e-02 
8.646507e-02 
8.804760e-02 
8.963013e-02 
9.121267e-02 
8.330000e-02 
7.395761e-02 
6.461522e-02 
5.527283e-02 
4.593044e-02 
3.658806e-02 
8.330000e-02 
9.105986e-02 
9.881971e-02 
1.065796e-01 
1.143394e-01 
1.220993e-01 
2.000000e-01 
2.000000e-01 
2.000000e-01 
2.000000e-01 
2.000000e-01 
2.000000e-01 
2.000000e-01 
2.000000e-01 
2.000000e-01 
2.000000e-01 
2.000000e-01 
2.000000e-01 
2.000000e-01 
2.000000e-01 
2.000000e-01 
2.000000e-01 
2.000000e-01 
2.000000e-01 
0.000000e+00 
-1.264444e-01 
-2.528888e-01 
-3.793332e-01 
-5.057776e-01 
-6.322220e-01 
0.000000e+00 
7.464569e-01 
1.492914e+00 
2.239371e+00 
2.985827e+00 
3.732284e+00 
0.000000e+00 
-6.200125e-01 
-1.240025e+00 
-1.860037e+00 
-2.480050e+00 
-3.100062e+00 
0.000000e+00 
-7.889314e-01 
-1.577863e+00 
-2.366794e+00 
-3.155726e+00 
-3.944657e+00 
0.000000e+00 
2.849617e-01 
5.699233e-01 
8.548850e-01 
1.139847e+00 
1.424808e+00 
0.000000e+00 
5.039698e-01 
1.007940e+00 
1.511909e+00 
2.015879e+00 
2.519849e+00 
0.000000e+00 
0.000000e+00 
0.000000e+00 
0.000000e+00 
0.000000e+00 
0.000000e+00 
0.000000e+00 
-0.000000e+00 
-0.000000e+00 
-0.000000e+00 
-0.000000e+00 
-0.000000e+00 
0.000000e+00 
0.000000e+00 
0.000000e+00 
0.000000e+00 
0.000000e+00 
0.000000e+00 
0.000000e+00 
0.000000e+00 
0.000000e+00 
0.000000e+00 
0.000000e+00 
0.000000e+00 
0.000000e+00 
0.000000e+00 
0.000000e+00 
0.000000e+00 
0.000000e+00 
0.000000e+00 
0.000000e+00 
0.000000e+00 
0.000000e+00 
0.000000e+00 
0.000000e+00 
0.000000e+00 
1 
1 
1 
1 
1 
2 
2 
2 
2 
2 
3 
3 
3 
3 
3 
-4.398821e-02 
-4.157176e-02 
-2.482074e-02 
-2.257139e-02 
-4.639446e-02 
-2.642850e-02 
-1.650118e-02 
-2.435358e-02 
-1.145076e-02 
9.416639e-03 
-1.926440e-02 
-4.213496e-03 
-4.200432e-03 
1.542626e-02 
3.632178e-02 
-4.881145e-03 
1.933543e-02 
1.432112e-02 
1.025448e-02 
4.995441e-03 
-6.383811e-02 
-6.028322e-02 
-5.761479e-02 
-7.119443e-02 
-7.850209e-02 
5.059469e-03 
2.509449e-02 
3.444860e-02 
6.225314e-02 
9.045451e-02 
8.570075e-01 
8.830484e-01 
8.497395e-01 
8.339337e-01 
8.598248e-01 
8.119920e-01 
8.601418e-01 
8.914776e-01 
9.088031e-01 
9.375541e-01 
8.136379e-01 
9.143642e-01 
9.445993e-01 
9.134296e-01 
9.459075e-01 
3.598469e-04 
1.123478e-04 
6.249405e-04 
4.943514e-04 
4.753895e-04 
-1.861253e-03 
-1.310343e-03 
-4.577327e-03 
-4.658099e-03 
-4.307880e-03 
1.580736e-03 
5.932111e-04 
5.606528e-03 
4.251815e-03 
3.846737e-03 
2.245212e-03 
7.009776e-04 
3.899226e-03 
3.084434e-03 
2.966124e-03 
-7.105378e-04 
-5.002264e-04 
-1.747405e-03 
-1.778240e-03 
-1.644543e-03 
-1.284883e-03 
-4.821846e-04 
-4.557200e-03 
-3.456037e-03 
-3.126774e-03 
-5.748206e-03 
-3.685694e-03 
-9.924136e-03 
-1.163682e-02 
-1.426568e-02 
-5.224289e-03 
-2.795322e-03 
-1.187737e-02 
-1.679041e-02 
-1.955413e-02 
-5.189788e-03 
-4.783492e-03 
-1.579477e-02 
-1.786314e-02 
-2.046424e-02 
1.075992e-316 
1.075992e-316 
6.931246e-310 
6.931246e-310 
6.931246e-310 
6.931246e-310 
6.931246e-310 
6.931246e-310 
6.931246e-310 
6.931246e-310 
6.931246e-310 
6.931246e-310 
6.931246e-310 
6.931246e-310 
6.931246e-310 
1.075992e-316 
1.075992e-316 
6.931246e-310 
6.931246e-310 
6.931246e-310 
6.931246e-310 
6.931246e-310 
6.931246e-310 
6.931246e-310 
6.931246e-310 
6.931246e-310 
6.931246e-310 
6.931246e-310 
6.931246e-310 
6.931246e-310 
1 2 
2 3 
3 4 
4 5 
5 6 
7 8 
8 9 
9 10 
10 11 
11 12 
13 14 
14 15 
15 16 
16 17 
17 18 
