VARIABLES = "X"
 "Y"
 "Z"
 "U"
 "V"
 "W"
 "uu"
 "vv"
 "ww"
 "uv"
 "vw"
 "uw"
 "Nv"
ZONE
DT=(DOUBLE,DOUBLE,DOUBLE,DOUBLE,DOUBLE,DOUBLE,DOUBLE,DOUBLE,DOUBLE,DOUBLE,DOUBLE,DOUBLE,DOUBLE)
                      0                    0.01                     1.9   -0.000243552506449991    -0.00165034670780482       0.714538944302924     0.00252320419044878     0.00056401281930741     0.00487383969085391     4.1229518426864E-06   -0.000469261118512242    -0.00029391464670436                       0 
                      0                    0.02                     1.9    -0.00329203369348511     -0.0023028417571361       0.806329303752918      0.0031755319025443     0.00115882374109855     0.00587374207976037     7.8664083355851E-05   -0.000900546925047073   -0.000439347853587276                       0 
                      0                    0.03                     1.9    -0.00386197355416305    -0.00132223241041326       0.853847547076501     0.00344033499849406      0.0017018536902213     0.00497643611321904    2.95554170840153E-05    -0.00113414747198521   -0.000288137864243378                       0 
                      0                    0.04                     1.9    -0.00176699778426047   -0.000354639180328185       0.877107624189271     0.00359211658672395     0.00227654420696332     0.00383719220534012    6.46456682775841E-05    -0.00117250908513102   -0.000148578536291447                       0 
                      0                    0.05                     1.9   -0.000278019476747345   -0.000946528208688343       0.892600290959344      0.0037165850118544     0.00264273912713129     0.00334535833049419    0.000199300095355427     -0.0010946896540618    -0.00020565914602197                       0 
                      0                    0.06                     1.9     0.00180224490100517    -0.00182391032836902       0.905472721660373     0.00410365066097888     0.00282557333961399      0.0036644826629837    8.28000051753499E-05    -0.00104262104835732   -0.000151686013282502                       0 
                      0                    0.07                     1.9     0.00471366159623693    -0.00290985723391899       0.916237981736314     0.00425059895329239     0.00301838842383506     0.00404600561886558    1.22587895494703E-05   -0.000992342494307102      9.271781570402E-05                       0 
                      0                    0.08                     1.9     0.00556369935308108    -0.00388528009874524       0.921891289907109     0.00410343549456847     0.00325750714863174     0.00425492289406009    9.49864675752758E-05   -0.000972392250529195    0.000452751733819831                       0 
                      0                    0.09                     1.9     0.00579721378802556    -0.00338316535855159       0.926178583153744     0.00397749917386509     0.00354201910695165     0.00481571758093636    0.000106873505486257    -0.00111561005294941    0.000587612742257137                       0 
                      0                     0.1                     1.9     0.00631034708801854    -0.00185974701505774       0.928918693701449     0.00394203024667094     0.00383121814373054     0.00519350569292114    8.33699079779349E-05    -0.00130054053639695    0.000384582196276979                       0 
                      0                    0.11                     1.9     0.00711849680429652   -0.000869825578220647       0.934297790245425     0.00401887327943527     0.00390008358965998     0.00509552404600547    0.000148339760045028    -0.00140226864571885    0.000206639146089195                       0 
                      0                    0.12                     1.9      0.0070976706423812    -0.00085919749949856       0.945468729049084     0.00395173217393766      0.0036364178949219     0.00544944492449738    8.43818492619884E-05     -0.0014676618542091    0.000251210093159207                       0 
                      0                    0.13                     1.9     0.00620426002442115   -0.000981768576366654       0.959291660803158     0.00394975827626525     0.00327700345648011     0.00539681265701951   -2.62813510344508E-05    -0.00149500466633227    0.000141092925421819                       0 
                      0                    0.14                     1.9     0.00414190556502144   -0.000692879494979869       0.973295267202668     0.00405111013424139     0.00307348886889554     0.00493940539380834   -3.45215695716217E-05    -0.00151895392675496    2.72162380026108E-05                       0 
                      0                    0.15                     1.9     0.00242468837233433   -0.000633959517012631       0.985151893570446     0.00404536018082728     0.00295687145257144     0.00462370652892525   -0.000100837977416679    -0.00151637702456954    9.17274423442157E-05                       0 
                      0                    0.16                     1.9     0.00209486278393359    -0.00159433809965006       0.996974425981272     0.00413894756996708     0.00276338234118322     0.00436618255176054   -0.000156885238947133    -0.00144470973855457    0.000117562061199965                       0 
                      0                    0.17                     1.9    0.000906157587329704     -0.0026923565968201        1.01362160197916     0.00392553954702903     0.00246329546121958     0.00413552859928426   -0.000232037126990315    -0.00121154985461231    0.000195608989932926                       0 
                      0                    0.18                     1.9    0.000270845521468023    -0.00285520084016806        1.03002962950957      0.0033432325564118     0.00211618844763337     0.00371323288757774    -0.00031597691659514   -0.000910126062685936    0.000253380213739529                       0 
                      0                    0.19                     1.9   -0.000492742535768482    -0.00265636938628679         1.0446121562466     0.00279056084146858     0.00182878496401864     0.00308857425758797   -0.000269330977183786   -0.000718827200492151     0.00026516654576125                       0 
                      0                     0.2                     1.9    -0.00185698693428488    -0.00266092268026833        1.05845233890666     0.00258173857297891     0.00166203309410504     0.00238588473264419   -0.000146887477255488   -0.000628471166939113    0.000234243706184311                       0 
                      0                    0.21                     1.9     -0.0024268376799544    -0.00241409303997084        1.06931844638809     0.00249192857108955      0.0015978597431892     0.00197841354636192   -4.87941646337806E-05    -0.00053751078547095     0.00012242160808991                       0 
                      0                    0.22                     1.9    -0.00311289873523922    -0.00180087583791706        1.07678071545906     0.00232895708597578     0.00157565504253973     0.00182701263530164    2.44127494853878E-05   -0.000437016821920097   -5.77410904731862E-06                       0 
                      0                    0.23                     1.9    -0.00322442262010032    -0.00136494394169392        1.08148384064951       0.002180400519793     0.00157462835487667     0.00171972111788575    8.37254289587894E-05   -0.000342652486099603   -0.000135235730280491                       0 
                      0                    0.24                     1.9    -0.00237136580180806    -0.00143138045309427        1.08470744549907     0.00201088793118602     0.00157744538717185     0.00155873269858489    8.33953152955436E-05   -0.000230384691889586   -0.000233816909763989                       0 
                      0                    0.25                     1.9    -0.00121605966077321    -0.00160462603683536         1.0886702960357       0.001894876469195     0.00154055216538893     0.00132809429064153   -1.25709224400462E-05   -0.000125190479415291   -0.000180202046038131                       0 
                      0                    0.26                     1.9   -0.000181618643186069    -0.00153477020112122        1.09214938495846     0.00186555175048658     0.00145128856497507      0.0010846299191903   -0.000120394945703733   -2.74739337078439E-05    -7.3028745341152E-05                       0 
                      0                    0.27                     1.9   -0.000760532813550938    -0.00125860077110342        1.09434927136691     0.00200569921004535     0.00126101925467636    0.000960403626721045    -0.00016033941981428     2.7142351405873E-05   -1.25563098935593E-05                       0 
                      0                    0.28                     1.9    -0.00175171888716625   -0.000778072175811562         1.0950457839995     0.00233613610377133    0.000921308111714657     0.00100319812839908   -0.000125245145692935     3.6511561095658E-05   -2.18585371265517E-05                       0 
                      0                    0.29                     1.9    -0.00110025401263698   -0.000264614158469193         1.0939812693131     0.00294650502271814    0.000421792822415084     0.00127843116962934   -5.52318980969787E-05    1.74044263103648E-05    3.38017947350785E-05                       0 
                      0                     0.3                     1.9   -0.000500159376019168   -4.45391560941591E-05        1.09317291208599     0.00335571859404556    0.000127978252147464      0.0014841548948485   -1.75633800773883E-05    2.18015053866165E-06    0.000126118343168974                       0 
