VARIABLES = "X"
 "Y"
 "Z"
 "U"
 "V"
 "W"
 "uu"
 "vv"
 "ww"
 "uv"
 "vw"
 "uw"
 "Nv"
ZONE
DT=(DOUBLE,DOUBLE,DOUBLE,DOUBLE,DOUBLE,DOUBLE,DOUBLE,DOUBLE,DOUBLE,DOUBLE,DOUBLE,DOUBLE,DOUBLE)
                      0                    0.01                     1.5    -0.00515992900370279    -0.00205620750715598       0.734228121257832     0.00225515086766483    0.000563849493890189      0.0048163120898073   -6.00964124828937E-05   -0.000568480616046837    1.92833233009998E-05                       0 
                      0                    0.02                     1.5    -0.00835985503673884    -0.00343560887734501       0.817682568849509      0.0031893275131677     0.00116924171244382     0.00477811050498799   -0.000121035266039034   -0.000605760031653597    0.000306975492772441                       0 
                      0                    0.03                     1.5      -0.010430111193804    -0.00337762707667208       0.849063164701657     0.00369733284628386     0.00166212095116939     0.00352405784433889   -0.000215416312024308   -0.000385106936357822    0.000600046251221536                       0 
                      0                    0.04                     1.5    -0.00685055616664814    -0.00183140436783073       0.867072763221614      0.0037601127196856     0.00224806610968544     0.00347216640827476   -0.000214425253063963   -0.000534914526334068    0.000588684768848483                       0 
                      0                    0.05                     1.5     -0.0020520887550558   -0.000554737189808802       0.877102313505434     0.00367771061136479     0.00285687436944068     0.00419423764854816    9.08485746342478E-05   -0.000749543199977952    0.000363777967394835                       0 
                      0                    0.06                     1.5   -0.000853611254229315    2.90538271532328E-05       0.885601989158761     0.00375757594218814     0.00328685318279623      0.0048466897106801    0.000441889828974666   -0.000705376208957574    0.000329951874787713                       0 
                      0                    0.07                     1.5     0.00197423082901391    0.000370942781644687       0.891709886579201     0.00386284045828137      0.0034797922911468      0.0055191630658099    0.000433738772983099    -0.00065076573916118    0.000330677016568915                       0 
                      0                    0.08                     1.5     0.00537633377925968     0.00042169474523444       0.895248235855953      0.0039603538781128     0.00345536426598922     0.00607849068330238     0.00029845246381678   -0.000724964251494241    0.000402868335846852                       0 
                      0                    0.09                     1.5     0.00655399204284225    0.000258698867904024       0.899534771409171     0.00397973808868419     0.00342880163216896     0.00613794457262419     0.00018420099975304   -0.000920055184707994    0.000554945171733345                       0 
                      0                     0.1                     1.5     0.00793986269069621   -0.000457946226849798       0.903539030086058     0.00386277474886308      0.0034358858318225     0.00679578234279609    6.25506931883116E-05    -0.00139417989967672    0.000568707093644177                       0 
                      0                    0.11                     1.5      0.0095539530778574     -0.0011212430810487       0.907346586247933     0.00379190543299903     0.00337896533700957     0.00723801046606492   -9.16584922520102E-07    -0.00175979516554396    0.000538548324622678                       0 
                      0                    0.12                     1.5     0.00922410668885433    -0.00087048122764605       0.919612393387047     0.00383050403453505     0.00340862561048015     0.00680874663696778    6.98919079549265E-05    -0.00183556826554357    0.000278884303700847                       0 
                      0                    0.13                     1.5     0.00888852381294885   -0.000410156072797274        0.94009167457701     0.00403170655750435     0.00343608665461841     0.00632745563987438    0.000179551632504328       -0.00171099014371    3.28157248746543E-05                       0 
                      0                    0.14                     1.5      0.0092030885180816   -0.000553925258616964       0.957537729300193      0.0041363226719322     0.00316074892953306     0.00595653814147786    8.58271055861494E-05    -0.00157315025240692    0.000136799792076454                       0 
                      0                    0.15                     1.5     0.00768843990291999   -0.000694728363186268       0.974731112653149     0.00412087358555868     0.00281341129082604     0.00576776287110795   -1.41215121629627E-05    -0.00155847527439584    0.000117716933245031                       0 
                      0                    0.16                     1.5     0.00605688196502077   -0.000545142508282176        0.99431494839674     0.00404882604937816     0.00263702370487351      0.0051158940035958   -4.03888302832074E-05    -0.00144715365217776    0.000200922311560089                       0 
                      0                    0.17                     1.5     0.00404123080567215   -0.000256977842848343        1.01351290724787     0.00360698469342346     0.00246321692377299     0.00417375292665941   -6.60753153548559E-05    -0.00126756285288408    0.000410958977011199                       0 
                      0                    0.18                     1.5     0.00105438970805631    0.000280473942314136        1.02887475369664     0.00294935610873234      0.0022383019237725     0.00342079761015766     -0.0001137655916591    -0.00103652005090696     0.00051901478016425                       0 
                      0                    0.19                     1.5    -0.00113833923643015    0.000459200960037461        1.04196794368263     0.00248983145381658     0.00199217580883955     0.00259629039961352   -0.000157423602424051   -0.000752215782739926     0.00046036431832191                       0 
                      0                     0.2                     1.5    -0.00241069237989425    0.000205432720068789        1.05446574471399     0.00225280214500167     0.00173220661637577     0.00198514449594576   -0.000129128395730076   -0.000597008377328783    0.000269046319634615                       0 
                      0                    0.21                     1.5    -0.00346008677539447    6.20224031445988E-05         1.0653970638766     0.00208481696759556     0.00157289160885956     0.00201492624078418   -1.16366115664431E-05   -0.000605556274248679    0.000108803795114982                       0 
                      0                    0.22                     1.5    -0.00422977855721273   -0.000154390596366145        1.07429710398194     0.00193303807462399     0.00156074317637234     0.00226448603027284    0.000106248828698515   -0.000623019137743022   -9.29684528080255E-05                       0 
                      0                    0.23                     1.5    -0.00418580557760372   -0.000891306607507952        1.08091547849447     0.00179235947295715     0.00158749378691047     0.00207503005111767    8.35050450289399E-05   -0.000512787128459138   -0.000197345511111698                       0 
                      0                    0.24                     1.5    -0.00411976260628173    -0.00193528403609419        1.08607410044941     0.00163020343550045     0.00157050460440247     0.00146234024627494     8.3532181148392E-06   -0.000283027600155814   -0.000171634796946256                       0 
                      0                    0.25                     1.5    -0.00297606657352592    -0.00253215099367532        1.09055632005381     0.00157611597289799     0.00148241441492884     0.00107177131317634   -4.26291881144907E-05   -0.000110150444542515    -9.8283053349813E-05                       0 
                      0                    0.26                     1.5     -0.0010529028811317    -0.00242042683896972        1.09333067488354     0.00159076960988684     0.00133181120594945    0.000996643245542441   -7.25475930887391E-05   -3.69981922597942E-05   -2.69896496167657E-05                       0 
                      0                    0.27                     1.5    -0.00029490648679515    -0.00173845724417498        1.09441712565453     0.00170028476046597     0.00118240580319284     0.00101230315276504   -8.73717773749473E-05   -1.14944373725825E-05   -1.29179261247282E-05                       0 
                      0                    0.28                     1.5   -6.09275080399517E-06   -0.000787913943210462        1.09423276234315     0.00197366196502453    0.000973567293266996     0.00109633410457999   -6.77706728238706E-05    -6.0691522611785E-06   -5.54189584217589E-05                       0 
                      0                    0.29                     1.5    0.000925296492747684   -0.000172018951842415        1.09400525952253      0.0026756934887349    0.000492295847286169      0.0013877399672428   -2.01202717989052E-05   -6.41691818226678E-06   -3.10179263340205E-05                       0 
                      0                     0.3                     1.5     0.00148017955634552   -2.44125580065555E-05        1.09415318099818     0.00319775784027714    0.000156817895007101      0.0016128080148454    2.30674586340987E-06   -8.74036177842921E-06    2.25025196879639E-05                       0 
