VARIABLES = "X"
 "Y"
 "Z"
 "U"
 "V"
 "W"
 "uu"
 "vv"
 "ww"
 "uv"
 "vw"
 "uw"
 "Nv"
ZONE
DT=(DOUBLE,DOUBLE,DOUBLE,DOUBLE,DOUBLE,DOUBLE,DOUBLE,DOUBLE,DOUBLE,DOUBLE,DOUBLE,DOUBLE,DOUBLE)
                      0                    0.01                     0.8    -0.00571492797872993     -0.0010676240099132       0.765181901397612     0.00200306231557737    0.000436854996838829     0.00361728391059556    -1.4907696250775E-06   -0.000289098732887933    -0.00014607504926389                       0 
                      0                    0.02                     0.8     -0.0129709704399094    -0.00202323204472731       0.832261324350535     0.00240522670742306    0.000999265835593302     0.00465558890342477     9.4809575516512E-05   -0.000108540088098822    0.000269899826008955                       0 
                      0                    0.03                     0.8     -0.0234182594623532    -0.00246922887512897       0.833144067523919     0.00249073003283528     0.00146791621512702     0.00448297570088329    0.000402770597610576    0.000317875856044944    0.000515598806013157                       0 
                      0                    0.04                     0.8     -0.0273434952354296   -7.01868119878083E-05       0.820260641752078     0.00251377560101462     0.00184217775508118     0.00393961691020729    0.000628843230262225    0.000519530158964258     0.00069084563552743                       0 
                      0                    0.05                     0.8      -0.025846620059805     0.00459947294167896        0.80983501614335      0.0026149185912607     0.00211771834236214     0.00371510902855636    0.000763186866294635    0.000509078697539223     0.00055732727134972                       0 
                      0                    0.06                     0.8     -0.0222151203844179     0.00900300605550295       0.799048778008122     0.00283259012854952     0.00232621681472607     0.00366338501215473    0.000637335308806474    0.000541750826109367    0.000323524926309599                       0 
                      0                    0.07                     0.8     -0.0137400628870726      0.0125841957366151        0.78754687166623     0.00303249099757641     0.00249884091766852     0.00373989500355074    0.000380979127530263    0.000526150193385735    0.000408327381592244                       0 
                      0                    0.08                     0.8     -0.0027345331308772      0.0140006758066235       0.780351696896597     0.00320913314378214     0.00280287592506999     0.00449187745755413    5.31419966129195E-05    0.000210058823742082     0.00094151067077339                       0 
                      0                    0.09                     0.8      0.0164825060895408       0.012526355602997       0.780279217128891     0.00339029880965451     0.00332656047350844     0.00617286273280092   -0.000134516545231385   -0.000266405597049999     0.00141718557542025                       0 
                      0                     0.1                     0.8      0.0343410652581797      0.0102662171751211       0.793103511601119      0.0033191726450871     0.00371933308117422     0.00761108578029178    0.000226631511275739    -0.00103834555269312     0.00113559820087823                       0 
                      0                    0.11                     0.8      0.0377444113364808     0.00853638433748421       0.821101307646449      0.0032929196109134     0.00375826423012128     0.00836919711778757    0.000567568035215663     -0.0018009364104545    0.000808367015581453                       0 
                      0                    0.12                     0.8      0.0388053427517105     0.00554766145726907       0.855782399270843     0.00314857848169515     0.00349412705227574     0.00896293124859424     0.00053379497453381    -0.00257514662071076    0.000372247067005977                       0 
                      0                    0.13                     0.8       0.033369045789948     0.00165444863726943       0.898269194911503     0.00279949663129267     0.00305250634909185     0.00929021258653089    0.000329827708039902    -0.00304370990275515    6.58590878459357E-05                       0 
                      0                    0.14                     0.8      0.0250419087297769   -0.000736138930934144       0.937937257172092     0.00264873913583557     0.00267447412306221     0.00904062865561291    8.05362561807823E-05     -0.0028379573723382    0.000469581714095816                       0 
                      0                    0.15                     0.8       0.015884533960983    -0.00102140457906497       0.970950107999339     0.00276573413800788     0.00241174354863081      0.0080311668536823    6.47277697704144E-06    -0.00244703099690088    0.000684141090044259                       0 
                      0                    0.16                     0.8     0.00697096738969354   -0.000650321691720774       0.998158583665327     0.00264064360648982     0.00210400265958665     0.00590670252759189   -2.90600397464298E-05      -0.001866019078234    0.000586521095646461                       0 
                      0                    0.17                     0.8     0.00184419411891915   -0.000526117240372636         1.0211974339155     0.00219437411396403     0.00177110050758084     0.00375636078122981   -3.47153845646089E-05    -0.00114455982697551    0.000339989871316631                       0 
                      0                    0.18                     0.8     -0.0011749938562562   -0.000368896067937735         1.0336981909869     0.00181071554180237     0.00151558586050288      0.0027312872665215   -1.83955200357959E-05   -0.000701682881534967    0.000127672884585987                       0 
                      0                    0.19                     0.8    -0.00285039397233931   -0.000755900064332562        1.04294634099634     0.00152497123307783      0.0012966053153294     0.00233363162045375   -7.64054645715658E-05   -0.000561795428225117    9.51259409833933E-05                       0 
                      0                     0.2                     0.8    -0.00644454657952788    -0.00184627112126926        1.05270492740863      0.0012829071099618     0.00111317480478228     0.00193264847160377   -0.000118884441353263   -0.000408380422790284     0.00015502845025018                       0 
                      0                    0.21                     0.8    -0.00831495251273791    -0.00254551509676267        1.06345558897813     0.00121886388873911    0.000990227779190224     0.00139537804499741   -0.000115267095944661   -0.000268966631925402    0.000102434056446173                       0 
                      0                    0.22                     0.8    -0.00833845043521549    -0.00239418342801269        1.07445335504132     0.00126289657667788    0.000916156292836915     0.00109562613882006   -7.32034603577967E-05   -0.000169965199009299   -5.22971537752998E-05                       0 
                      0                    0.23                     0.8    -0.00763580294325043    -0.00227200423515661        1.08382749166406     0.00130114413493771    0.000897083506369876     0.00100697395863105    -7.8996355801508E-05   -0.000149202356976655   -0.000111307706373322                       0 
                      0                    0.24                     0.8    -0.00634081492113337    -0.00224518268821495        1.09161603600449     0.00121343692524885    0.000920254956018488    0.000970175870793383    -6.9040646349699E-05   -0.000176096841611832   -0.000119638148706563                       0 
                      0                    0.25                     0.8    -0.00456017919123458    -0.00220066130322513        1.09447801117193     0.00113572111245291    0.000948653692639146    0.000914809643290937   -4.97843439918167E-05   -0.000151293019093026   -9.31005841848117E-05                       0 
                      0                    0.26                     0.8    -0.00191147371251552     -0.0023430044272282        1.09610784054044      0.0011700525036502    0.000921414136037055    0.000861697541476865   -7.91523012706116E-05   -0.000136769899391733   -3.80090718938914E-05                       0 
                      0                    0.27                     0.8     0.00111231071459252    -0.00208388088966434        1.09614372256294     0.00123175887359319    0.000798970703006617     0.00086979649319628   -0.000104385195008143   -0.000108437521489781    -4.4609212706228E-05                       0 
                      0                    0.28                     0.8     0.00376178383716667    -0.00141424813372159        1.09596800808138     0.00141051662158847    0.000585837838089987    0.000983298628079869   -8.64638258573147E-05   -8.75921944190082E-05   -3.24444366532071E-05                       0 
                      0                    0.29                     0.8     0.00497289780757536   -0.000752110898390974        1.09685206474613     0.00227466906427148    0.000271888431680172     0.00125016776217738   -2.54670833018548E-05   -6.46234688354144E-05    2.10478093202017E-05                       0 
                      0                     0.3                     0.8      0.0047609473995182   -0.000417010539136661        1.09761738698251     0.00301524101270876    8.60779497512228E-05     0.00144172623151844    1.55841170735169E-05    -3.7754235853909E-05    2.10149274715753E-05                       0 
