VARIABLES = "X"
 "Y"
 "Z"
 "U"
 "V"
 "W"
 "uu"
 "vv"
 "ww"
 "uv"
 "vw"
 "uw"
 "Nv"
ZONE
DT=(DOUBLE,DOUBLE,DOUBLE,DOUBLE,DOUBLE,DOUBLE,DOUBLE,DOUBLE,DOUBLE,DOUBLE,DOUBLE,DOUBLE,DOUBLE)
                      0                    0.01                     0.9    -0.00538563796350301    -0.00147062157751799       0.759189427469278     0.00204884678110191    0.000441765318713511     0.00360152120980913    1.37515115033261E-05   -0.000384853606130172   -5.15374575291111E-05                       0 
                      0                    0.02                     0.9     -0.0136436501525437    -0.00325159104177521       0.829022168943791     0.00236384615919599     0.00102489051743015     0.00423558559586091    7.97707448465414E-05   -0.000240817908434191    0.000383085506343126                       0 
                      0                    0.03                     0.9     -0.0226430087040749    -0.00394667825327753       0.834947824664372     0.00237620346859431     0.00151514418581572     0.00399992055574447    0.000265286848708271    0.000272123970286462    0.000555240480920006                       0 
                      0                    0.04                     0.9     -0.0251596148675022    -0.00153935494654326       0.828063429403314     0.00255442766350299     0.00187327446387788     0.00403734817143148     0.00046978809563597    0.000542262674720446    0.000586310363191055                       0 
                      0                    0.05                     0.9      -0.021729932352009     0.00243495964294996       0.819658877852908     0.00273723554356212     0.00210520924124949     0.00399833223791026    0.000670661332250198    0.000525147449699492    0.000543905744647155                       0 
                      0                    0.06                     0.9     -0.0171782953085857     0.00615794788919356        0.80965602625278     0.00301035859288055     0.00227433466424775     0.00396520055873103    0.000624162171899503    0.000484301037215846    0.000381940345412215                       0 
                      0                    0.07                     0.9     -0.0100524029942167     0.00943533407112481       0.801841263033635      0.0032426539082131     0.00244785982859949     0.00422999509228133    0.000352418295439116    0.000448467723694758    0.000409909522344448                       0 
                      0                    0.08                     0.9   -0.000627544809187469      0.0105485560612617       0.795619432944326      0.0032499543266142     0.00277937538033803     0.00526365540886647   -3.84990859623937E-05    2.69273893039892E-05    0.000865548919879354                       0 
                      0                    0.09                     0.9      0.0144137321221723     0.00910700774535998       0.795416061494945     0.00328771244721859     0.00325168028290569     0.00682774857946237   -0.000180952615028957   -0.000657348164647379     0.00120672936987833                       0 
                      0                     0.1                     0.9      0.0276797058854775     0.00728027846294651       0.811012270467007     0.00335606497502276     0.00363192286182863     0.00812526784815209    0.000165411369410674    -0.00154532435481235     0.00105069665146918                       0 
                      0                    0.11                     0.9      0.0305965097362934     0.00625578400057821       0.838812595070546     0.00346305012965756     0.00383155259322181     0.00875842293992526    0.000472578636245883    -0.00218946167777375    0.000702509402699136                       0 
                      0                    0.12                     0.9      0.0324867869718744     0.00449596270026322       0.869402837725149     0.00332224005688053     0.00371213879798156     0.00896576512604952    0.000408886040651141     -0.0025610864234353    0.000124937689540119                       0 
                      0                    0.13                     0.9      0.0289838913456899      0.0017993302455968       0.905165928034932     0.00292122578713055     0.00332707714649288     0.00903447865794426    0.000213464711430433    -0.00284663487450874   -3.35519646227798E-05                       0 
                      0                    0.14                     0.9      0.0229582058264905    4.10104155688722E-05       0.937934815246784     0.00272655995861302     0.00293220940969195     0.00866919190548719    5.95666765631619E-05    -0.00269055786636483    0.000260159891290036                       0 
                      0                    0.15                     0.9      0.0153241372674345    6.59616308538075E-05       0.966658456849388     0.00286600963887169     0.00259480010289608     0.00777551249972307   -2.19062201430966E-05    -0.00232439953155056    0.000496467429546838                       0 
                      0                    0.16                     0.9     0.00699716093469629    0.000727854017452114       0.992893823599657     0.00277619703672746     0.00223918227221024     0.00611023246767382    -9.2406261959419E-05    -0.00189754262313068    0.000524788181765589                       0 
                      0                    0.17                     0.9     0.00200578070204789    0.000787576568809355          1.017242306989      0.0023337338447148     0.00188881072853461     0.00397691550699954   -7.55176499038332E-05    -0.00123810371418371    0.000229228062091965                       0 
                      0                    0.18                     0.9   -0.000494554028588552    0.000532128658338626        1.03319119146075     0.00195085117679497     0.00162911243101452     0.00275708533495608   -1.84105316759092E-05    -0.00075878409741544    6.50356908452259E-05                       0 
                      0                    0.19                     0.9    -0.00187031648259432    5.12180909510704E-05        1.04339170679343       0.001627100653999     0.00140549702132668     0.00234649767637017   -5.28719854431371E-05   -0.000645517719469463     6.2836195494174E-05                       0 
                      0                     0.2                     0.9    -0.00506230009905121   -0.000860285339523523        1.05215966436346     0.00131862465062746     0.00120261432385297      0.0020655177801004   -9.83573314928408E-05   -0.000518345184918351    0.000103636844644709                       0 
                      0                    0.21                     0.9    -0.00717136413905047      -0.001541102112444         1.0626053883391     0.00121683521245955     0.00105276731864529     0.00164263948103145   -0.000114489141526698   -0.000350030403680247    9.57915329625376E-05                       0 
                      0                    0.22                     0.9    -0.00755814211107625    -0.00156394151145111        1.07415950400309     0.00123917901824102    0.000958956416186833     0.00119873973707626   -9.19560891376167E-05    -0.00021107642069094   -3.31617521860154E-06                       0 
                      0                    0.23                     0.9    -0.00707900772191842    -0.00173194329403433        1.08403718063401     0.00125951315624266    0.000928194496217398     0.00100933258825464    -9.6193099335955E-05   -0.000179939419784261   -6.56742711871159E-05                       0 
                      0                    0.24                     0.9    -0.00608332382965511    -0.00204739755832089        1.09123635428756     0.00117546919521559    0.000946640618598514     0.00094655282214718   -8.40793698353188E-05   -0.000190271211696377   -8.18427666269326E-05                       0 
                      0                    0.25                     0.9    -0.00435423249578684    -0.00211804164753809        1.09402573093929     0.00110955103104531    0.000967415973537232    0.000895172538237105   -5.79228230689136E-05   -0.000149231734080127   -6.75983463944755E-05                       0 
                      0                    0.26                     0.9    -0.00163862068804441    -0.00203536695527551        1.09571897984964     0.00116494059216948    0.000933241837990247    0.000854523583032281   -6.77678100011157E-05   -0.000119272329173162   -1.04421876467998E-05                       0 
                      0                    0.27                     0.9     0.00107466207701569    -0.00161767227011346        1.09594023212302     0.00126138721315614    0.000819014401526682    0.000880081892172236   -7.63009965912102E-05   -8.85339255184559E-05   -8.93798082322397E-06                       0 
                      0                    0.28                     0.9     0.00334212354870401    -0.00106878208889167         1.0959395169678     0.00145566698050695    0.000616354219307307    0.000981927723618664    -6.7070071198167E-05   -7.41662473453096E-05   -1.70051091295437E-05                       0 
                      0                    0.29                     0.9     0.00449507750076608   -0.000587500774329961        1.09642791771592     0.00229207442755711    0.000291825148867805     0.00120613075586459    -3.0529539278807E-05   -5.63269322922257E-05    2.08768051775978E-05                       0 
                      0                     0.3                     0.9     0.00443402618193411   -0.000337682710866748         1.0968384735608     0.00300168142105375    9.40533137355879E-05     0.00136942116489242    1.10197527084337E-06   -3.24929388013184E-05    2.67902122712485E-05                       0 
