VARIABLES = "X"
 "Y"
 "Z"
 "U"
 "V"
 "W"
 "uu"
 "vv"
 "ww"
 "uv"
 "vw"
 "uw"
 "Nv"
ZONE
DT=(DOUBLE,DOUBLE,DOUBLE,DOUBLE,DOUBLE,DOUBLE,DOUBLE,DOUBLE,DOUBLE,DOUBLE,DOUBLE,DOUBLE,DOUBLE)
                      0                    0.01                     0.5    -0.00139944639048136    0.000685886645353878       0.793734670913293     0.00202661636242454    0.000479734457956911     0.00460006811174365   -3.36199831991868E-05    -0.00048038839745863   -0.000118908548608695                       0 
                      0                    0.02                     0.5    -0.00739675557031385   -0.000681882332389852       0.846566258853558     0.00203399941840396     0.00104299201316625     0.00567242126816295    5.88083978485028E-05    2.71563709543077E-05    0.000245695468442502                       0 
                      0                    0.03                     0.5     -0.0256228757022898     -0.0024676608610582       0.821344670722201     0.00201625818041382     0.00140518487192941     0.00480540321426905    0.000398460671466148    0.000912820811141074    0.000439713299399555                       0 
                      0                    0.04                     0.5     -0.0403935732631192    -0.00122295166846418       0.778144238512052     0.00186478067100068     0.00157649338771696     0.00362184127655485    0.000565636208679232    0.000994440807288755    0.000420636372570484                       0 
                      0                    0.05                     0.5       -0.04881350615883     0.00222593162143645       0.755414249068886     0.00190098292659968     0.00165134155296166     0.00342536371626077     0.00059132394037234    0.000428295161669562   -0.000182394459979124                       0 
                      0                    0.06                     0.5     -0.0521057671425432     0.00701755015016782       0.753367302749873     0.00238656137977115     0.00184331465909337     0.00440797417774657    0.000572678850866531    0.000314678609666799   -0.000552803505122427                       0 
                      0                    0.07                     0.5     -0.0351160024908364     0.00976519750260379       0.735336184957663     0.00241092172989344      0.0022317089514474     0.00576367829745045    0.000431198309947498    0.000437735808223192   -0.000319258311162445                       0 
                      0                    0.08                     0.5     -0.0155171296166782      0.0110082992522162       0.741317988027692     0.00261381876496951     0.00258009298858452     0.00690147169139047    9.19614504118587E-05   -0.000830487127034198    0.000198468103416449                       0 
                      0                    0.09                     0.5      0.0264196080302006      0.0139454140919959       0.756024240276098     0.00263334712329545     0.00282046314952457     0.00581515524126969   -8.89409790940495E-06   -0.000956874026283209    0.000603957590194043                       0 
                      0                     0.1                     0.5      0.0673932447838901      0.0148412951394297       0.741390766574597     0.00220908204686079     0.00285862386226654     0.00370202368533131    0.000501529117308666    -3.9476713053284E-06    0.000514262310863959                       0 
                      0                    0.11                     0.5      0.0664857400556982      0.0148486849749728       0.752054872079126     0.00231570540197625     0.00257587711628733     0.00368805007829953    0.000577236106191035   -0.000540327455497065    0.000396781495031861                       0 
                      0                    0.12                     0.5      0.0619250337793385      0.0121271043188352       0.790015178123801     0.00227014596500789     0.00232803262770176     0.00612233165396872    0.000393432369445903    -0.00182809673622466    0.000480159725695362                       0 
                      0                    0.13                     0.5       0.041145412252139     0.00355499251676694        0.85743347519219     0.00215682168409524     0.00232363748364151     0.00951257013600084    0.000430592603186613    -0.00325815082713297    0.000292027413990409                       0 
                      0                    0.14                     0.5      0.0219218723940612    -0.00399749605558573       0.934968764938936     0.00211456908156127     0.00230311089826577     0.00916499546627079    0.000291292918741644     -0.0035039134891712   -9.36555956265434E-07                       0 
                      0                    0.15                     0.5      0.0102551425065913     -0.0054943469462214       0.991088356063627     0.00206585492548479     0.00213945848336893     0.00569351624855213    0.000133201082830307    -0.00224055363584505    0.000144299444621751                       0 
                      0                    0.16                     0.5   -0.000436328542923067    -0.00403059661541576        1.01547623376233     0.00209037306081274     0.00191580367289932     0.00316682069640582    -5.4883176550916E-05    -0.00114766256710392    0.000274853021205054                       0 
                      0                    0.17                     0.5    -0.00220350824271259    -0.00258271295500694        1.03124642024347     0.00200718851612995     0.00164746043497472     0.00256208210213123   -0.000141399843966149   -0.000784144539787117    0.000251305261943198                       0 
                      0                    0.18                     0.5    -0.00427082726465089     -0.0018758207223876        1.03869246776567     0.00166292185112135     0.00137436990178966     0.00208298867650618    -9.0236313903937E-05   -0.000557387640277041    0.000245001992026793                       0 
                      0                    0.19                     0.5    -0.00519482478289015    -0.00237624440599813        1.04751670624856     0.00140002237704715     0.00115088858099386     0.00143812754249868   -9.38852252184679E-05   -0.000314638265345132    0.000174988710124185                       0 
                      0                     0.2                     0.5    -0.00755991060549756    -0.00318440439555997        1.05827426580037     0.00119203206178333     0.00101246503859629      0.0012095124220625   -7.66623206754114E-05   -0.000133970895046511    3.87687324393192E-05                       0 
                      0                    0.21                     0.5     -0.0081300879087995    -0.00315286975732949        1.06530666951694     0.00113159554379845    0.000974973528392934     0.00116434880032034   -3.15183283999528E-05   -8.80679435795173E-05   -1.68284169578585E-05                       0 
                      0                    0.22                     0.5    -0.00867952858900027    -0.00212111836706228        1.07409429649975     0.00122603693037441    0.000971110944652161     0.00115948169464886   -3.16932034456243E-05    -9.1745845051712E-05   -7.11723461293696E-05                       0 
                      0                    0.23                     0.5    -0.00777835212168606     -0.0014179521240294        1.08176910527914     0.00124450049624728    0.000961368090184302     0.00106893855708273   -8.22971524168951E-05   -9.30781261370399E-05   -0.000110130955810117                       0 
                      0                    0.24                     0.5    -0.00637737593034378    -0.00132480601844799        1.09106183236945     0.00119406224268714    0.000950084929800654      0.0010374509221142   -0.000109456510506152    -0.00015722392138277    -0.00011438142228067                       0 
                      0                    0.25                     0.5    -0.00510746845975518     -0.0015744771808386        1.09445476531982     0.00114717311225831    0.000913615862373263     0.00095287139993161   -8.87470232555642E-05   -0.000151742089656182   -7.28831437299957E-05                       0 
                      0                    0.26                     0.5    -0.00185437810451897    -0.00197889562289446        1.09648501919355     0.00113454371395748    0.000845004890139334    0.000837648137391469   -8.09970149599646E-05   -0.000133696460171338   -2.24293999053771E-05                       0 
                      0                    0.27                     0.5      0.0018421634397221    -0.00164774025782353        1.09730732388817     0.00114248595998018    0.000727394695772773    0.000796800691725656   -8.39360357221443E-05   -9.79105697117707E-05   -1.76857424702991E-05                       0 
                      0                    0.28                     0.5     0.00478262557637046   -0.000605032492542882        1.09564900425524     0.00130364366914466     0.00052693570166966    0.000926871126463232   -7.67232951243229E-05   -4.15497876133166E-05    4.33204878800747E-06                       0 
                      0                    0.29                     0.5     0.00643148383630871    4.14912425234385E-05         1.0962686548389     0.00218312857526394    0.000242388816671192     0.00122304438481929   -4.07327932607038E-05   -2.33200844310612E-05    0.000104461541987923                       0 
                      0                     0.3                     0.5     0.00637268600985408    0.000119501365711726        1.09796380858237     0.00295689654346233    7.83895853694312E-05       0.001422884430219   -1.16096507269114E-05   -2.23086587764171E-05    0.000154754916013796                       0 
