TITLE = "Actuator line mesh" 
 VARIABLES = "X", "Y", "Z", "ub_x", "ub_y", "ub_z", "tmprtb", "color", "U_lagr_x", "U_lagr_y", "U_lagr_z", "F_lagr_x", "F_lagr_y", "F_lagr_z", "Tmprt_lagr", "Ftmprt_lagr"
ZONE T="P_1", DATAPACKING=BLOCK, NODES=18, ELEMENTS=15, ZONETYPE=FELINESEG, VARLOCATION=([1-7]=NODAL,[8-16]=CELLCENTERED)
STRANDID=0.1 SOLUTIONTIME=1.000000e+01 
0.000000e+00 
-9.998781e-03 
-1.999756e-02 
-2.999634e-02 
-3.999513e-02 
-4.999391e-02 
0.000000e+00 
5.134585e-03 
1.026917e-02 
1.540375e-02 
2.053834e-02 
2.567292e-02 
0.000000e+00 
4.864197e-03 
9.728393e-03 
1.459259e-02 
1.945679e-02 
2.432098e-02 
8.330000e-02 
8.314389e-02 
8.298778e-02 
8.283167e-02 
8.267557e-02 
8.251946e-02 
8.330000e-02 
7.471886e-02 
6.613771e-02 
5.755657e-02 
4.897542e-02 
4.039428e-02 
8.330000e-02 
9.203725e-02 
1.007745e-01 
1.095118e-01 
1.182490e-01 
1.269863e-01 
2.000000e-01 
2.000000e-01 
2.000000e-01 
2.000000e-01 
2.000000e-01 
2.000000e-01 
2.000000e-01 
2.000000e-01 
2.000000e-01 
2.000000e-01 
2.000000e-01 
2.000000e-01 
2.000000e-01 
2.000000e-01 
2.000000e-01 
2.000000e-01 
2.000000e-01 
2.000000e-01 
0.000000e+00 
0.000000e+00 
0.000000e+00 
0.000000e+00 
0.000000e+00 
0.000000e+00 
0.000000e+00 
0.000000e+00 
0.000000e+00 
0.000000e+00 
0.000000e+00 
0.000000e+00 
0.000000e+00 
0.000000e+00 
0.000000e+00 
0.000000e+00 
0.000000e+00 
0.000000e+00 
0.000000e+00 
0.000000e+00 
0.000000e+00 
0.000000e+00 
0.000000e+00 
0.000000e+00 
0.000000e+00 
0.000000e+00 
0.000000e+00 
0.000000e+00 
0.000000e+00 
0.000000e+00 
0.000000e+00 
0.000000e+00 
0.000000e+00 
0.000000e+00 
0.000000e+00 
0.000000e+00 
0.000000e+00 
0.000000e+00 
0.000000e+00 
0.000000e+00 
0.000000e+00 
0.000000e+00 
0.000000e+00 
0.000000e+00 
0.000000e+00 
0.000000e+00 
0.000000e+00 
0.000000e+00 
0.000000e+00 
0.000000e+00 
0.000000e+00 
0.000000e+00 
0.000000e+00 
0.000000e+00 
0.000000e+00 
0.000000e+00 
0.000000e+00 
0.000000e+00 
0.000000e+00 
0.000000e+00 
0.000000e+00 
0.000000e+00 
0.000000e+00 
0.000000e+00 
0.000000e+00 
0.000000e+00 
0.000000e+00 
0.000000e+00 
0.000000e+00 
0.000000e+00 
0.000000e+00 
0.000000e+00 
1 
1 
1 
1 
1 
2 
2 
2 
2 
2 
3 
3 
3 
3 
3 
-4.398821e-02 
-4.157176e-02 
-2.482074e-02 
-2.257139e-02 
-4.639446e-02 
-2.642850e-02 
-1.650118e-02 
-2.435358e-02 
-1.145076e-02 
9.416639e-03 
-1.926440e-02 
-4.213496e-03 
-4.200432e-03 
1.542626e-02 
3.632178e-02 
-4.881145e-03 
1.933543e-02 
1.432112e-02 
1.025448e-02 
4.995441e-03 
-6.383811e-02 
-6.028322e-02 
-5.761479e-02 
-7.119443e-02 
-7.850209e-02 
5.059469e-03 
2.509449e-02 
3.444860e-02 
6.225314e-02 
9.045451e-02 
8.570075e-01 
8.830484e-01 
8.497395e-01 
8.339337e-01 
8.598248e-01 
8.119920e-01 
8.601418e-01 
8.914776e-01 
9.088031e-01 
9.375541e-01 
8.136379e-01 
9.143642e-01 
9.445993e-01 
9.134296e-01 
9.459075e-01 
6.931245e-310 
6.931245e-310 
6.931245e-310 
6.931245e-310 
6.931245e-310 
6.931245e-310 
6.931245e-310 
6.931245e-310 
6.931245e-310 
6.931245e-310 
6.931245e-310 
6.931245e-310 
6.931245e-310 
6.931245e-310 
6.931245e-310 
6.931245e-310 
6.931245e-310 
6.931245e-310 
6.931245e-310 
6.931245e-310 
6.931245e-310 
6.931245e-310 
6.931245e-310 
6.931245e-310 
6.931245e-310 
6.931245e-310 
6.931245e-310 
6.931245e-310 
6.931245e-310 
6.931245e-310 
6.931245e-310 
6.931245e-310 
6.931245e-310 
6.931245e-310 
6.931245e-310 
6.931245e-310 
6.931245e-310 
6.931245e-310 
6.931245e-310 
6.931245e-310 
6.931245e-310 
6.931245e-310 
6.931245e-310 
6.931245e-310 
6.931245e-310 
6.931245e-310 
6.931245e-310 
6.931245e-310 
6.931245e-310 
6.931245e-310 
6.931245e-310 
6.931245e-310 
6.931245e-310 
6.931245e-310 
6.931245e-310 
6.931245e-310 
6.931245e-310 
6.931245e-310 
6.931245e-310 
6.931245e-310 
6.931245e-310 
6.931245e-310 
6.931245e-310 
6.931245e-310 
6.931245e-310 
6.931245e-310 
6.931245e-310 
6.931245e-310 
6.931245e-310 
6.931245e-310 
6.931245e-310 
6.931245e-310 
6.931245e-310 
6.931245e-310 
6.931245e-310 
1 2 
2 3 
3 4 
4 5 
5 6 
7 8 
8 9 
9 10 
10 11 
11 12 
13 14 
14 15 
15 16 
16 17 
17 18 
